LAMMPS data file via write_data, version 2 Aug 2023, timestep = 0, units = real

7988 atoms
13 atom types
8521 bonds
15 bond types
14670 angles
15 angle types
23598 dihedrals
9 dihedral types
2380 impropers
1 improper types

-19 19 xlo xhi
-19 19 ylo yhi
0 300 zlo zhi

Masses

1 12.011
2 12.011
3 18.9984
4 15.9994
5 32.06
6 1.008
7 15.9994
8 1.008
9 15.9994
10 12.011
11 12.011
12 12.011
13 15.9994

PairIJ Coeffs # lj/cut/coul/long

1 1 0.0844 3.45998 15
1 2 0.0895904 3.46648 15
1 3 0.0647012 3.24242 15
1 4 0.0898726 3.24656 15
1 5 0.170392 3.52515 15
1 6 0 1.72999 15
1 7 0.114377 3.31249 15
1 8 0 1.72999 15
1 9 0.130914 3.20741 15
1 10 0.0895904 3.46648 15
1 11 0.0895904 3.46648 15
1 12 0.0895904 3.46648 15
1 13 0.0898726 3.24657 15
2 2 0.0951 3.47299 15
2 3 0.0686801 3.24893 15
2 4 0.0953995 3.25307 15
2 5 0.180871 3.53165 15
2 6 0 1.73649 15
2 7 0.12141 3.319 15
2 8 0 1.73649 15
2 9 0.138964 3.21392 15
2 10 0.0951 3.47299 15
2 11 0.0951 3.47299 15
2 12 0.0951 3.47299 15
2 13 0.0953995 3.25307 15
3 3 0.0496 3.02487 15
3 4 0.0688964 3.02901 15
3 5 0.130623 3.3076 15
3 6 0 1.51243 15
3 7 0.0876812 3.09493 15
3 8 0 1.51243 15
3 9 0.100358 2.98986 15
3 10 0.0686801 3.24893 15
3 11 0.0686801 3.24893 15
3 12 0.0686801 3.24893 15
3 13 0.0688964 3.02901 15
4 4 0.0957 3.03315 15
4 5 0.181441 3.31174 15
4 6 0 1.51658 15
4 7 0.121793 3.09908 15
4 8 0 1.51658 15
4 9 0.139402 2.994 15
4 10 0.0953995 3.25307 15
4 11 0.0953995 3.25307 15
4 12 0.0953995 3.25307 15
4 13 0.0957 3.03315 15
5 5 0.344 3.59032 15
5 6 0 1.79516 15
5 7 0.230911 3.37766 15
5 8 0 1.79516 15
5 9 0.264297 3.27258 15
5 10 0.180871 3.53165 15
5 11 0.180871 3.53165 15
5 12 0.180871 3.53165 15
5 13 0.181441 3.31174 15
6 6 0 0 15
6 7 0 1.5825 15
6 8 0 0 15
6 9 0 1.47742 15
6 10 0 1.73649 15
6 11 0 1.73649 15
6 12 0 1.73649 15
6 13 0 1.51658 15
7 7 0.155 3.165 15
7 8 0 1.5825 15
7 9 0.17741 3.05992 15
7 10 0.12141 3.319 15
7 11 0.12141 3.319 15
7 12 0.12141 3.319 15
7 13 0.121793 3.09908 15
8 8 0 0 15
8 9 0 0 15
8 10 0 1.73649 15
8 11 0 1.73649 15
8 12 0 1.73649 15
8 13 0 1.51658 15
9 9 0.203061 2.95484 15
9 10 0.138964 3.21392 15
9 11 0.138964 3.21392 15
9 12 0.138964 3.21392 15
9 13 0.139402 2.994 15
10 10 0.0951 3.47299 15
10 11 0.0951 3.47299 15
10 12 0.0951 3.47299 15
10 13 0.0953995 3.25307 15
11 11 0.0951 3.47299 15
11 12 0.0951 3.47299 15
11 13 0.0953995 3.25307 15
12 12 0.0951 3.47299 15
12 13 0.0953995 3.25307 15
13 13 0.0957 3.03315 15

Bond Coeffs # harmonic

1 214.66 1.4982
2 350 1.53
3 302.63 1.336
4 350 1.42
5 350 1.8
6 350 1.48
7 350 1.371
8 350 1.53
9 350 1.42
10 529.581 1.012
11 478.011 0.984
12 1050 1.194
13 350 1.292
14 525 1.39
15 350 1.46

Angle Coeffs # harmonic

1 53.1369 122.554
2 50.1683 118.319
3 54.1198 121.502
4 50 109.471
5 50 125.23
6 50 109.57
7 50 110.3
8 50 116.81
9 175 102.65
10 175 115.5
11 50 104.51
12 37.95 113.24
13 47.694 109.5
14 50 180
15 50 120

Dihedral Coeffs # harmonic

1 0.5 1 3
2 1.6085 -1 3
3 2.0611 -1 3
4 2.0212 1 3
5 0.5 1 3
6 0.5 1 3
7 1 1 3
8 0.5 1 3
9 3.125 -1 2

Improper Coeffs # umbrella

1 40 0

Atoms # full

1 1 12 -0.017 -18.0795 -18.420361 0 0 0 0
2 2 12 -0.04418 -18.7885 -17.192337 0 0 0 0
3 3 12 -0.05138 -16.6615 -18.420361 0 0 0 0
4 4 11 0.0516 -15.9525 -17.192337 0 0 0 0
5 5 12 -0.05957 -13.8255 -18.420361 0 0 0 0
6 6 11 0.04981 -14.5345 -17.192337 0 0 0 0
7 7 12 -0.05957 -12.4075 -18.420361 0 0 0 0
8 8 11 0.04975 -11.6985 -17.192337 0 0 0 0
9 9 12 -0.05957 -9.5715 -18.420361 0 0 0 0
10 10 11 0.04975 -10.2805 -17.192337 0 0 0 0
37 37 11 0.07781 -18.0795 -15.964313 0 0 0 0
38 38 12 -0.08581 -18.7885 -14.736289 0 0 0 0
39 39 11 0.02361 -16.6615 -15.964313 0 0 0 0
40 40 11 0.00316 -15.9525 -14.736289 0 0 0 0
41 41 11 0.00911 -13.8255 -15.964313 0 0 0 0
42 42 11 0.00079 -14.5345 -14.736289 0 0 0 0
43 43 11 0.0091 -12.4075 -15.964313 0 0 0 0
44 44 11 0.0007 -11.6985 -14.736289 0 0 0 0
45 45 11 0.0091 -9.5715 -15.964313 0 0 0 0
46 46 11 0.0007 -10.2805 -14.736289 0 0 0 0
73 73 11 0.06944 -18.0795 -13.508265 0 0 0 0
74 74 12 -0.08649999999999999 -18.7885 -12.280241 0 0 0 0
75 75 11 0.01457 -16.6615 -13.508265 0 0 0 0
76 76 11 0.00245 -15.9525 -12.280241 0 0 0 0
77 77 11 3e-05 -13.8255 -13.508265 0 0 0 0
78 78 11 9.000000000000001e-05 -14.5345 -12.280241 0 0 0 0
79 79 11 2e-05 -12.4075 -13.508265 0 0 0 0
80 80 11 0 -11.6985 -12.280241 0 0 0 0
81 81 11 2e-05 -9.5715 -13.508265 0 0 0 0
82 82 11 0 -10.2805 -12.280241 0 0 0 0
109 109 11 0.06941 -18.0795 -11.052217 0 0 0 0
110 110 12 -0.08649999999999999 -18.7885 -9.824192 0 0 0 0
111 111 11 0.01454 -16.6615 -11.052217 0 0 0 0
112 112 11 0.00245 -15.9525 -9.824192 0 0 0 0
113 113 11 0 -13.8255 -11.052217 0 0 0 0
114 114 11 9.000000000000001e-05 -14.5345 -9.824192 0 0 0 0
115 115 11 0 -12.4075 -11.052217 0 0 0 0
116 116 11 0 -11.6985 -9.824192 0 0 0 0
117 117 11 0 -9.5715 -11.052217 0 0 0 0
118 118 11 0 -10.2805 -9.824192 0 0 0 0
541 541 12 -0.017 -17.3705 -17.192337 3.35 0 0 0
542 542 12 -0.04418 -18.0795 -15.964313 3.35 0 0 0
543 543 12 -0.05138 -15.9525 -17.192337 3.35 0 0 0
544 544 11 0.0516 -15.2435 -15.964313 3.35 0 0 0
545 545 12 -0.05957 -13.1165 -17.192337 3.35 0 0 0
546 546 11 0.04981 -13.8255 -15.964313 3.35 0 0 0
547 547 12 -0.05957 -11.6985 -17.192337 3.35 0 0 0
548 548 11 0.04975 -10.9895 -15.964313 3.35 0 0 0
550 550 11 0.04975 -9.5715 -15.964313 3.35 0 0 0
577 577 11 0.07781 -17.3705 -14.736289 3.35 0 0 0
578 578 12 -0.08581 -18.0795 -13.508265 3.35 0 0 0
579 579 11 0.02361 -15.9525 -14.736289 3.35 0 0 0
580 580 11 0.00316 -15.2435 -13.508265 3.35 0 0 0
581 581 11 0.00911 -13.1165 -14.736289 3.35 0 0 0
582 582 11 0.00079 -13.8255 -13.508265 3.35 0 0 0
583 583 11 0.0091 -11.6985 -14.736289 3.35 0 0 0
584 584 11 0.0007 -10.9895 -13.508265 3.35 0 0 0
586 586 11 0.0007 -9.5715 -13.508265 3.35 0 0 0
613 613 11 0.06944 -17.3705 -12.280241 3.35 0 0 0
614 614 12 -0.08649999999999999 -18.0795 -11.052217 3.35 0 0 0
615 615 11 0.01457 -15.9525 -12.280241 3.35 0 0 0
616 616 11 0.00245 -15.2435 -11.052217 3.35 0 0 0
617 617 11 3e-05 -13.1165 -12.280241 3.35 0 0 0
618 618 11 9.000000000000001e-05 -13.8255 -11.052217 3.35 0 0 0
619 619 11 2e-05 -11.6985 -12.280241 3.35 0 0 0
620 620 11 0 -10.9895 -11.052217 3.35 0 0 0
622 622 11 0 -9.5715 -11.052217 3.35 0 0 0
649 649 11 0.06941 -17.3705 -9.824192 3.35 0 0 0
651 651 11 0.01454 -15.9525 -9.824192 3.35 0 0 0
653 653 11 0 -13.1165 -9.824192 3.35 0 0 0
655 655 11 0 -11.6985 -9.824192 3.35 0 0 0
1081 1081 12 -0.017 -18.0795 -18.420361 6.7 0 0 0
1082 1082 12 -0.04418 -18.7885 -17.192337 6.7 0 0 0
1083 1083 12 -0.05138 -16.6615 -18.420361 6.7 0 0 0
1084 1084 11 0.0516 -15.9525 -17.192337 6.7 0 0 0
1085 1085 12 -0.05957 -13.8255 -18.420361 6.7 0 0 0
1086 1086 11 0.04981 -14.5345 -17.192337 6.7 0 0 0
1087 1087 12 -0.05957 -12.4075 -18.420361 6.7 0 0 0
1088 1088 11 0.04975 -11.6985 -17.192337 6.7 0 0 0
1089 1089 12 -0.05957 -9.5715 -18.420361 6.7 0 0 0
1090 1090 11 0.04975 -10.2805 -17.192337 6.7 0 0 0
1117 1117 11 0.07781 -18.0795 -15.964313 6.7 0 0 0
1118 1118 12 -0.08581 -18.7885 -14.736289 6.7 0 0 0
1119 1119 11 0.02361 -16.6615 -15.964313 6.7 0 0 0
1120 1120 11 0.00316 -15.9525 -14.736289 6.7 0 0 0
1121 1121 11 0.00911 -13.8255 -15.964313 6.7 0 0 0
1122 1122 11 0.00079 -14.5345 -14.736289 6.7 0 0 0
1123 1123 11 0.0091 -12.4075 -15.964313 6.7 0 0 0
1124 1124 11 0.0007 -11.6985 -14.736289 6.7 0 0 0
1125 1125 11 0.0091 -9.5715 -15.964313 6.7 0 0 0
1126 1126 11 0.0007 -10.2805 -14.736289 6.7 0 0 0
1153 1153 11 0.06944 -18.0795 -13.508265 6.7 0 0 0
1154 1154 12 -0.08649999999999999 -18.7885 -12.280241 6.7 0 0 0
1155 1155 11 0.01457 -16.6615 -13.508265 6.7 0 0 0
1156 1156 11 0.00245 -15.9525 -12.280241 6.7 0 0 0
1157 1157 11 3e-05 -13.8255 -13.508265 6.7 0 0 0
1158 1158 11 9.000000000000001e-05 -14.5345 -12.280241 6.7 0 0 0
1159 1159 11 2e-05 -12.4075 -13.508265 6.7 0 0 0
1160 1160 11 0 -11.6985 -12.280241 6.7 0 0 0
1161 1161 11 2e-05 -9.5715 -13.508265 6.7 0 0 0
1162 1162 11 0 -10.2805 -12.280241 6.7 0 0 0
1189 1189 11 0.06941 -18.0795 -11.052217 6.7 0 0 0
1190 1190 12 -0.08649999999999999 -18.7885 -9.824192 6.7 0 0 0
1191 1191 11 0.01454 -16.6615 -11.052217 6.7 0 0 0
1192 1192 11 0.00245 -15.9525 -9.824192 6.7 0 0 0
1193 1193 11 0 -13.8255 -11.052217 6.7 0 0 0
1194 1194 11 9.000000000000001e-05 -14.5345 -9.824192 6.7 0 0 0
1195 1195 11 0 -12.4075 -11.052217 6.7 0 0 0
1196 1196 11 0 -11.6985 -9.824192 6.7 0 0 0
1197 1197 11 0 -9.5715 -11.052217 6.7 0 0 0
1198 1198 11 0 -10.2805 -9.824192 6.7 0 0 0
11 11 12 -0.05957 -8.1535 -18.420361 0 0 0 0
12 12 11 0.04975 -7.4445 -17.192337 0 0 0 0
13 13 12 -0.05957 -5.3175 -18.420361 0 0 0 0
14 14 11 0.04975 -6.0265 -17.192337 0 0 0 0
15 15 12 -0.05957 -3.8995 -18.420361 0 0 0 0
16 16 11 0.04975 -3.1905 -17.192337 0 0 0 0
17 17 12 -0.05957 -1.063499 -18.420361 0 0 0 0
18 18 11 0.04975 -1.772501 -17.192337 0 0 0 0
47 47 11 0.0091 -8.1535 -15.964313 0 0 0 0
48 48 11 0.0007 -7.4445 -14.736289 0 0 0 0
49 49 11 0.0091 -5.3175 -15.964313 0 0 0 0
50 50 11 0.0007 -6.0265 -14.736289 0 0 0 0
51 51 11 0.0091 -3.8995 -15.964313 0 0 0 0
52 52 11 0.0007 -3.1905 -14.736289 0 0 0 0
53 53 11 0.0091 -1.063499 -15.964313 0 0 0 0
54 54 11 0.0007 -1.772501 -14.736289 0 0 0 0
83 83 11 2e-05 -8.1535 -13.508265 0 0 0 0
84 84 11 0 -7.4445 -12.280241 0 0 0 0
85 85 11 2e-05 -5.3175 -13.508265 0 0 0 0
86 86 11 0 -6.0265 -12.280241 0 0 0 0
87 87 11 2e-05 -3.8995 -13.508265 0 0 0 0
88 88 11 0 -3.1905 -12.280241 0 0 0 0
89 89 11 2e-05 -1.063499 -13.508265 0 0 0 0
90 90 11 0 -1.772501 -12.280241 0 0 0 0
119 119 11 0 -8.1535 -11.052217 0 0 0 0
120 120 11 0 -7.4445 -9.824192 0 0 0 0
121 121 11 0 -5.3175 -11.052217 0 0 0 0
122 122 11 0 -6.0265 -9.824192 0 0 0 0
123 123 11 0 -3.8995 -11.052217 0 0 0 0
124 124 11 0 -3.1905 -9.824192 0 0 0 0
125 125 11 0 -1.063499 -11.052217 0 0 0 0
126 126 11 0 -1.772501 -9.824192 0 0 0 0
549 549 12 -0.05957 -8.8625 -17.192337 3.35 0 0 0
551 551 12 -0.05957 -7.4445 -17.192337 3.35 0 0 0
552 552 11 0.04975 -6.7355 -15.964313 3.35 0 0 0
553 553 12 -0.05957 -4.6085 -17.192337 3.35 0 0 0
554 554 11 0.04975 -5.3175 -15.964313 3.35 0 0 0
555 555 12 -0.05957 -3.1905 -17.192337 3.35 0 0 0
556 556 11 0.04975 -2.4815 -15.964313 3.35 0 0 0
557 557 12 -0.05957 -0.3545 -17.192337 3.35 0 0 0
558 558 11 0.04975 -1.063499 -15.964313 3.35 0 0 0
585 585 11 0.0091 -8.8625 -14.736289 3.35 0 0 0
587 587 11 0.0091 -7.4445 -14.736289 3.35 0 0 0
588 588 11 0.0007 -6.7355 -13.508265 3.35 0 0 0
589 589 11 0.0091 -4.6085 -14.736289 3.35 0 0 0
590 590 11 0.0007 -5.3175 -13.508265 3.35 0 0 0
591 591 11 0.0091 -3.1905 -14.736289 3.35 0 0 0
592 592 11 0.0007 -2.4815 -13.508265 3.35 0 0 0
593 593 11 0.0091 -0.3545 -14.736289 3.35 0 0 0
594 594 11 0.0007 -1.063499 -13.508265 3.35 0 0 0
621 621 11 2e-05 -8.8625 -12.280241 3.35 0 0 0
623 623 11 2e-05 -7.4445 -12.280241 3.35 0 0 0
624 624 11 0 -6.7355 -11.052217 3.35 0 0 0
625 625 11 2e-05 -4.6085 -12.280241 3.35 0 0 0
626 626 11 0 -5.3175 -11.052217 3.35 0 0 0
627 627 11 2e-05 -3.1905 -12.280241 3.35 0 0 0
628 628 11 0 -2.4815 -11.052217 3.35 0 0 0
629 629 11 2e-05 -0.3545 -12.280241 3.35 0 0 0
630 630 11 0 -1.063499 -11.052217 3.35 0 0 0
657 657 11 0 -8.8625 -9.824192 3.35 0 0 0
659 659 11 0 -7.4445 -9.824192 3.35 0 0 0
661 661 11 0 -4.6085 -9.824192 3.35 0 0 0
663 663 11 0 -3.1905 -9.824192 3.35 0 0 0
665 665 11 0 -0.3545 -9.824192 3.35 0 0 0
1091 1091 12 -0.05957 -8.1535 -18.420361 6.7 0 0 0
1092 1092 11 0.04975 -7.4445 -17.192337 6.7 0 0 0
1093 1093 12 -0.05957 -5.3175 -18.420361 6.7 0 0 0
1094 1094 11 0.04975 -6.0265 -17.192337 6.7 0 0 0
1095 1095 12 -0.05957 -3.8995 -18.420361 6.7 0 0 0
1096 1096 11 0.04975 -3.1905 -17.192337 6.7 0 0 0
1097 1097 12 -0.05957 -1.063499 -18.420361 6.7 0 0 0
1098 1098 11 0.04975 -1.772501 -17.192337 6.7 0 0 0
1127 1127 11 0.0091 -8.1535 -15.964313 6.7 0 0 0
1128 1128 11 0.0007 -7.4445 -14.736289 6.7 0 0 0
1129 1129 11 0.0091 -5.3175 -15.964313 6.7 0 0 0
1130 1130 11 0.0007 -6.0265 -14.736289 6.7 0 0 0
1131 1131 11 0.0091 -3.8995 -15.964313 6.7 0 0 0
1132 1132 11 0.0007 -3.1905 -14.736289 6.7 0 0 0
1133 1133 11 0.0091 -1.063499 -15.964313 6.7 0 0 0
1134 1134 11 0.0007 -1.772501 -14.736289 6.7 0 0 0
1163 1163 11 2e-05 -8.1535 -13.508265 6.7 0 0 0
1164 1164 11 0 -7.4445 -12.280241 6.7 0 0 0
1165 1165 11 2e-05 -5.3175 -13.508265 6.7 0 0 0
1166 1166 11 0 -6.0265 -12.280241 6.7 0 0 0
1167 1167 11 2e-05 -3.8995 -13.508265 6.7 0 0 0
1168 1168 11 0 -3.1905 -12.280241 6.7 0 0 0
1169 1169 11 2e-05 -1.063499 -13.508265 6.7 0 0 0
1170 1170 11 0 -1.772501 -12.280241 6.7 0 0 0
1199 1199 11 0 -8.1535 -11.052217 6.7 0 0 0
1200 1200 11 0 -7.4445 -9.824192 6.7 0 0 0
1201 1201 11 0 -5.3175 -11.052217 6.7 0 0 0
1202 1202 11 0 -6.0265 -9.824192 6.7 0 0 0
1203 1203 11 0 -3.8995 -11.052217 6.7 0 0 0
1204 1204 11 0 -3.1905 -9.824192 6.7 0 0 0
1205 1205 11 0 -1.063499 -11.052217 6.7 0 0 0
1206 1206 11 0 -1.772501 -9.824192 6.7 0 0 0
19 19 12 -0.05957 0.3545 -18.420361 0 0 0 0
20 20 11 0.04975 1.0635 -17.192337 0 0 0 0
21 21 12 -0.05957 3.1905 -18.420361 0 0 0 0
22 22 11 0.04975 2.481501 -17.192337 0 0 0 0
23 23 12 -0.05957 4.6085 -18.420361 0 0 0 0
24 24 11 0.04975 5.317499 -17.192337 0 0 0 0
25 25 12 -0.05957 7.4445 -18.420361 0 0 0 0
26 26 11 0.04975 6.735501 -17.192337 0 0 0 0
27 27 12 -0.05957 8.862499 -18.420361 0 0 0 0
55 55 11 0.0091 0.3545 -15.964313 0 0 0 0
56 56 11 0.0007 1.0635 -14.736289 0 0 0 0
57 57 11 0.0091 3.1905 -15.964313 0 0 0 0
58 58 11 0.0007 2.481501 -14.736289 0 0 0 0
59 59 11 0.0091 4.6085 -15.964313 0 0 0 0
60 60 11 0.0007 5.317499 -14.736289 0 0 0 0
61 61 11 0.0091 7.4445 -15.964313 0 0 0 0
62 62 11 0.0007 6.735501 -14.736289 0 0 0 0
63 63 11 0.0091 8.862499 -15.964313 0 0 0 0
91 91 11 2e-05 0.3545 -13.508265 0 0 0 0
92 92 11 0 1.0635 -12.280241 0 0 0 0
93 93 11 2e-05 3.1905 -13.508265 0 0 0 0
94 94 11 0 2.481501 -12.280241 0 0 0 0
95 95 11 2e-05 4.6085 -13.508265 0 0 0 0
96 96 11 0 5.317499 -12.280241 0 0 0 0
97 97 11 2e-05 7.4445 -13.508265 0 0 0 0
98 98 11 0 6.735501 -12.280241 0 0 0 0
99 99 11 2e-05 8.862499 -13.508265 0 0 0 0
127 127 11 0 0.3545 -11.052217 0 0 0 0
128 128 11 0 1.0635 -9.824192 0 0 0 0
129 129 11 0 3.1905 -11.052217 0 0 0 0
130 130 11 0 2.481501 -9.824192 0 0 0 0
131 131 11 0 4.6085 -11.052217 0 0 0 0
132 132 11 0 5.317499 -9.824192 0 0 0 0
133 133 11 0 7.4445 -11.052217 0 0 0 0
134 134 11 0 6.735501 -9.824192 0 0 0 0
135 135 11 0 8.862499 -11.052217 0 0 0 0
559 559 12 -0.05957 1.0635 -17.192337 3.35 0 0 0
560 560 11 0.04975 1.772499 -15.964313 3.35 0 0 0
561 561 12 -0.05957 3.8995 -17.192337 3.35 0 0 0
562 562 11 0.04975 3.1905 -15.964313 3.35 0 0 0
563 563 12 -0.05957 5.317499 -17.192337 3.35 0 0 0
564 564 11 0.04975 6.026501 -15.964313 3.35 0 0 0
565 565 12 -0.05957 8.1535 -17.192337 3.35 0 0 0
566 566 11 0.04975 7.4445 -15.964313 3.35 0 0 0
595 595 11 0.0091 1.0635 -14.736289 3.35 0 0 0
596 596 11 0.0007 1.772499 -13.508265 3.35 0 0 0
597 597 11 0.0091 3.8995 -14.736289 3.35 0 0 0
598 598 11 0.0007 3.1905 -13.508265 3.35 0 0 0
599 599 11 0.0091 5.317499 -14.736289 3.35 0 0 0
600 600 11 0.0007 6.026501 -13.508265 3.35 0 0 0
601 601 11 0.0091 8.1535 -14.736289 3.35 0 0 0
602 602 11 0.0007 7.4445 -13.508265 3.35 0 0 0
631 631 11 2e-05 1.0635 -12.280241 3.35 0 0 0
632 632 11 0 1.772499 -11.052217 3.35 0 0 0
633 633 11 2e-05 3.8995 -12.280241 3.35 0 0 0
634 634 11 0 3.1905 -11.052217 3.35 0 0 0
635 635 11 2e-05 5.317499 -12.280241 3.35 0 0 0
636 636 11 0 6.026501 -11.052217 3.35 0 0 0
637 637 11 2e-05 8.1535 -12.280241 3.35 0 0 0
638 638 11 0 7.4445 -11.052217 3.35 0 0 0
667 667 11 0 1.0635 -9.824192 3.35 0 0 0
669 669 11 0 3.8995 -9.824192 3.35 0 0 0
671 671 11 0 5.317499 -9.824192 3.35 0 0 0
673 673 11 0 8.1535 -9.824192 3.35 0 0 0
1099 1099 12 -0.05957 0.3545 -18.420361 6.7 0 0 0
1100 1100 11 0.04975 1.0635 -17.192337 6.7 0 0 0
1101 1101 12 -0.05957 3.1905 -18.420361 6.7 0 0 0
1102 1102 11 0.04975 2.481501 -17.192337 6.7 0 0 0
1103 1103 12 -0.05957 4.6085 -18.420361 6.7 0 0 0
1104 1104 11 0.04975 5.317499 -17.192337 6.7 0 0 0
1105 1105 12 -0.05957 7.4445 -18.420361 6.7 0 0 0
1106 1106 11 0.04975 6.735501 -17.192337 6.7 0 0 0
1107 1107 12 -0.05957 8.862499 -18.420361 6.7 0 0 0
1135 1135 11 0.0091 0.3545 -15.964313 6.7 0 0 0
1136 1136 11 0.0007 1.0635 -14.736289 6.7 0 0 0
1137 1137 11 0.0091 3.1905 -15.964313 6.7 0 0 0
1138 1138 11 0.0007 2.481501 -14.736289 6.7 0 0 0
1139 1139 11 0.0091 4.6085 -15.964313 6.7 0 0 0
1140 1140 11 0.0007 5.317499 -14.736289 6.7 0 0 0
1141 1141 11 0.0091 7.4445 -15.964313 6.7 0 0 0
1142 1142 11 0.0007 6.735501 -14.736289 6.7 0 0 0
1143 1143 11 0.0091 8.862499 -15.964313 6.7 0 0 0
1171 1171 11 2e-05 0.3545 -13.508265 6.7 0 0 0
1172 1172 11 0 1.0635 -12.280241 6.7 0 0 0
1173 1173 11 2e-05 3.1905 -13.508265 6.7 0 0 0
1174 1174 11 0 2.481501 -12.280241 6.7 0 0 0
1175 1175 11 2e-05 4.6085 -13.508265 6.7 0 0 0
1176 1176 11 0 5.317499 -12.280241 6.7 0 0 0
1177 1177 11 2e-05 7.4445 -13.508265 6.7 0 0 0
1178 1178 11 0 6.735501 -12.280241 6.7 0 0 0
1179 1179 11 2e-05 8.862499 -13.508265 6.7 0 0 0
1207 1207 11 0 0.3545 -11.052217 6.7 0 0 0
1208 1208 11 0 1.0635 -9.824192 6.7 0 0 0
1209 1209 11 0 3.1905 -11.052217 6.7 0 0 0
1210 1210 11 0 2.481501 -9.824192 6.7 0 0 0
1211 1211 11 0 4.6085 -11.052217 6.7 0 0 0
1212 1212 11 0 5.317499 -9.824192 6.7 0 0 0
1213 1213 11 0 7.4445 -11.052217 6.7 0 0 0
1214 1214 11 0 6.735501 -9.824192 6.7 0 0 0
1215 1215 11 0 8.862499 -11.052217 6.7 0 0 0
28 28 11 0.04975 9.571499 -17.192337 0 0 0 0
29 29 12 -0.05957 11.6985 -18.420361 0 0 0 0
30 30 11 0.04975 10.9895 -17.192337 0 0 0 0
31 31 12 -0.05957 13.116499 -18.420361 0 0 0 0
32 32 11 0.04981 13.825501 -17.192337 0 0 0 0
33 33 12 -0.05138 15.952501 -18.420361 0 0 0 0
34 34 11 0.0516 15.243502 -17.192337 0 0 0 0
35 35 12 -0.017 17.370501 -18.420361 0 0 0 0
36 36 12 -0.04418 18.0795 -17.192337 0 0 0 0
64 64 11 0.0007 9.571499 -14.736289 0 0 0 0
65 65 11 0.0091 11.6985 -15.964313 0 0 0 0
66 66 11 0.0007 10.9895 -14.736289 0 0 0 0
67 67 11 0.00911 13.116499 -15.964313 0 0 0 0
68 68 11 0.00079 13.825501 -14.736289 0 0 0 0
69 69 11 0.02361 15.952501 -15.964313 0 0 0 0
70 70 11 0.00316 15.243502 -14.736289 0 0 0 0
71 71 11 0.07781 17.370501 -15.964313 0 0 0 0
72 72 12 -0.08581 18.0795 -14.736289 0 0 0 0
100 100 11 0 9.571499 -12.280241 0 0 0 0
101 101 11 2e-05 11.6985 -13.508265 0 0 0 0
102 102 11 0 10.9895 -12.280241 0 0 0 0
103 103 11 3e-05 13.116499 -13.508265 0 0 0 0
104 104 11 9.000000000000001e-05 13.825501 -12.280241 0 0 0 0
105 105 11 0.01457 15.952501 -13.508265 0 0 0 0
106 106 11 0.00245 15.243502 -12.280241 0 0 0 0
107 107 11 0.06944 17.370501 -13.508265 0 0 0 0
108 108 12 -0.08649999999999999 18.0795 -12.280241 0 0 0 0
136 136 11 0 9.571499 -9.824192 0 0 0 0
137 137 11 0 11.6985 -11.052217 0 0 0 0
138 138 11 0 10.9895 -9.824192 0 0 0 0
139 139 11 0 13.116499 -11.052217 0 0 0 0
140 140 11 9.000000000000001e-05 13.825501 -9.824192 0 0 0 0
141 141 11 0.01454 15.952501 -11.052217 0 0 0 0
142 142 11 0.00245 15.243502 -9.824192 0 0 0 0
143 143 11 0.06941 17.370501 -11.052217 0 0 0 0
144 144 12 -0.08649999999999999 18.0795 -9.824192 0 0 0 0
567 567 12 -0.05957 9.571499 -17.192337 3.35 0 0 0
568 568 11 0.04975 10.280501 -15.964313 3.35 0 0 0
569 569 12 -0.05957 12.4075 -17.192337 3.35 0 0 0
570 570 11 0.04975 11.6985 -15.964313 3.35 0 0 0
571 571 12 -0.05957 13.825501 -17.192337 3.35 0 0 0
572 572 11 0.04981 14.534498 -15.964313 3.35 0 0 0
573 573 12 -0.05138 16.661501 -17.192337 3.35 0 0 0
574 574 11 0.0516 15.952501 -15.964313 3.35 0 0 0
575 575 12 -0.017 18.0795 -17.192337 3.35 0 0 0
576 576 12 -0.04418 18.7885 -15.964313 3.35 0 0 0
603 603 11 0.0091 9.571499 -14.736289 3.35 0 0 0
604 604 11 0.0007 10.280501 -13.508265 3.35 0 0 0
605 605 11 0.0091 12.4075 -14.736289 3.35 0 0 0
606 606 11 0.0007 11.6985 -13.508265 3.35 0 0 0
607 607 11 0.00911 13.825501 -14.736289 3.35 0 0 0
608 608 11 0.00079 14.534498 -13.508265 3.35 0 0 0
609 609 11 0.02361 16.661501 -14.736289 3.35 0 0 0
610 610 11 0.00316 15.952501 -13.508265 3.35 0 0 0
611 611 11 0.07781 18.0795 -14.736289 3.35 0 0 0
612 612 12 -0.08581 18.7885 -13.508265 3.35 0 0 0
639 639 11 2e-05 9.571499 -12.280241 3.35 0 0 0
640 640 11 0 10.280501 -11.052217 3.35 0 0 0
641 641 11 2e-05 12.4075 -12.280241 3.35 0 0 0
642 642 11 0 11.6985 -11.052217 3.35 0 0 0
643 643 11 3e-05 13.825501 -12.280241 3.35 0 0 0
644 644 11 9.000000000000001e-05 14.534498 -11.052217 3.35 0 0 0
645 645 11 0.01457 16.661501 -12.280241 3.35 0 0 0
646 646 11 0.00245 15.952501 -11.052217 3.35 0 0 0
647 647 11 0.06944 18.0795 -12.280241 3.35 0 0 0
648 648 12 -0.08649999999999999 18.7885 -11.052217 3.35 0 0 0
675 675 11 0 9.571499 -9.824192 3.35 0 0 0
677 677 11 0 12.4075 -9.824192 3.35 0 0 0
679 679 11 0 13.825501 -9.824192 3.35 0 0 0
681 681 11 0.01454 16.661501 -9.824192 3.35 0 0 0
683 683 11 0.06941 18.0795 -9.824192 3.35 0 0 0
1108 1108 11 0.04975 9.571499 -17.192337 6.7 0 0 0
1109 1109 12 -0.05957 11.6985 -18.420361 6.7 0 0 0
1110 1110 11 0.04975 10.9895 -17.192337 6.7 0 0 0
1111 1111 12 -0.05957 13.116499 -18.420361 6.7 0 0 0
1112 1112 11 0.04981 13.825501 -17.192337 6.7 0 0 0
1113 1113 12 -0.05138 15.952501 -18.420361 6.7 0 0 0
1114 1114 11 0.0516 15.243502 -17.192337 6.7 0 0 0
1115 1115 12 -0.017 17.370501 -18.420361 6.7 0 0 0
1116 1116 12 -0.04418 18.0795 -17.192337 6.7 0 0 0
1144 1144 11 0.0007 9.571499 -14.736289 6.7 0 0 0
1145 1145 11 0.0091 11.6985 -15.964313 6.7 0 0 0
1146 1146 11 0.0007 10.9895 -14.736289 6.7 0 0 0
1147 1147 11 0.00911 13.116499 -15.964313 6.7 0 0 0
1148 1148 11 0.00079 13.825501 -14.736289 6.7 0 0 0
1149 1149 11 0.02361 15.952501 -15.964313 6.7 0 0 0
1150 1150 11 0.00316 15.243502 -14.736289 6.7 0 0 0
1151 1151 11 0.07781 17.370501 -15.964313 6.7 0 0 0
1152 1152 12 -0.08581 18.0795 -14.736289 6.7 0 0 0
1180 1180 11 0 9.571499 -12.280241 6.7 0 0 0
1181 1181 11 2e-05 11.6985 -13.508265 6.7 0 0 0
1182 1182 11 0 10.9895 -12.280241 6.7 0 0 0
1183 1183 11 3e-05 13.116499 -13.508265 6.7 0 0 0
1184 1184 11 9.000000000000001e-05 13.825501 -12.280241 6.7 0 0 0
1185 1185 11 0.01457 15.952501 -13.508265 6.7 0 0 0
1186 1186 11 0.00245 15.243502 -12.280241 6.7 0 0 0
1187 1187 11 0.06944 17.370501 -13.508265 6.7 0 0 0
1188 1188 12 -0.08649999999999999 18.0795 -12.280241 6.7 0 0 0
1216 1216 11 0 9.571499 -9.824192 6.7 0 0 0
1217 1217 11 0 11.6985 -11.052217 6.7 0 0 0
1218 1218 11 0 10.9895 -9.824192 6.7 0 0 0
1219 1219 11 0 13.116499 -11.052217 6.7 0 0 0
1220 1220 11 9.000000000000001e-05 13.825501 -9.824192 6.7 0 0 0
1221 1221 11 0.01454 15.952501 -11.052217 6.7 0 0 0
1222 1222 11 0.00245 15.243502 -9.824192 6.7 0 0 0
1223 1223 11 0.06941 17.370501 -11.052217 6.7 0 0 0
1224 1224 12 -0.08649999999999999 18.0795 -9.824192 6.7 0 0 0
145 145 11 0.06941 -18.0795 -8.596169 0 0 0 0
146 146 12 -0.08649999999999999 -18.7885 -7.368144 0 0 0 0
147 147 11 0.01454 -16.6615 -8.596169 0 0 0 0
148 148 11 0.00245 -15.9525 -7.368144 0 0 0 0
149 149 11 0 -13.8255 -8.596169 0 0 0 0
150 150 11 9.000000000000001e-05 -14.5345 -7.368144 0 0 0 0
151 151 11 0 -12.4075 -8.596169 0 0 0 0
152 152 11 0 -11.6985 -7.368144 0 0 0 0
153 153 11 0 -9.5715 -8.596169 0 0 0 0
154 154 11 0 -10.2805 -7.368144 0 0 0 0
181 181 11 0.06941 -18.0795 -6.140121 0 0 0 0
182 182 12 -0.08649999999999999 -18.7885 -4.912096 0 0 0 0
183 183 11 0.01454 -16.6615 -6.140121 0 0 0 0
184 184 11 0.00245 -15.9525 -4.912096 0 0 0 0
185 185 11 0 -13.8255 -6.140121 0 0 0 0
186 186 11 9.000000000000001e-05 -14.5345 -4.912096 0 0 0 0
187 187 11 0 -12.4075 -6.140121 0 0 0 0
188 188 11 0 -11.6985 -4.912096 0 0 0 0
189 189 11 0 -9.5715 -6.140121 0 0 0 0
190 190 11 0 -10.2805 -4.912096 0 0 0 0
217 217 11 0.06941 -18.0795 -3.684073 0 0 0 0
218 218 12 -0.08649999999999999 -18.7885 -2.456048 0 0 0 0
219 219 11 0.01454 -16.6615 -3.684073 0 0 0 0
220 220 11 0.00245 -15.9525 -2.456048 0 0 0 0
221 221 11 0 -13.8255 -3.684073 0 0 0 0
222 222 11 9.000000000000001e-05 -14.5345 -2.456048 0 0 0 0
223 223 11 0 -12.4075 -3.684073 0 0 0 0
224 224 11 0 -11.6985 -2.456048 0 0 0 0
225 225 11 0 -9.5715 -3.684073 0 0 0 0
226 226 11 0 -10.2805 -2.456048 0 0 0 0
253 253 11 0.06941 -18.0795 -1.228024 0 0 0 0
255 255 11 0.01454 -16.6615 -1.228024 0 0 0 0
257 257 11 0 -13.8255 -1.228024 0 0 0 0
259 259 11 0 -12.4075 -1.228024 0 0 0 0
261 261 11 0 -9.5715 -1.228024 0 0 0 0
650 650 12 -0.08649999999999999 -18.0795 -8.596169 3.35 0 0 0
652 652 11 0.00245 -15.2435 -8.596169 3.35 0 0 0
654 654 11 9.000000000000001e-05 -13.8255 -8.596169 3.35 0 0 0
656 656 11 0 -10.9895 -8.596169 3.35 0 0 0
658 658 11 0 -9.5715 -8.596169 3.35 0 0 0
685 685 11 0.06941 -17.3705 -7.368144 3.35 0 0 0
686 686 12 -0.08649999999999999 -18.0795 -6.140121 3.35 0 0 0
687 687 11 0.01454 -15.9525 -7.368144 3.35 0 0 0
688 688 11 0.00245 -15.2435 -6.140121 3.35 0 0 0
689 689 11 0 -13.1165 -7.368144 3.35 0 0 0
690 690 11 9.000000000000001e-05 -13.8255 -6.140121 3.35 0 0 0
691 691 11 0 -11.6985 -7.368144 3.35 0 0 0
692 692 11 0 -10.9895 -6.140121 3.35 0 0 0
694 694 11 0 -9.5715 -6.140121 3.35 0 0 0
721 721 11 0.06941 -17.3705 -4.912096 3.35 0 0 0
722 722 12 -0.08649999999999999 -18.0795 -3.684073 3.35 0 0 0
723 723 11 0.01454 -15.9525 -4.912096 3.35 0 0 0
724 724 11 0.00245 -15.2435 -3.684073 3.35 0 0 0
725 725 11 0 -13.1165 -4.912096 3.35 0 0 0
726 726 11 9.000000000000001e-05 -13.8255 -3.684073 3.35 0 0 0
727 727 11 0 -11.6985 -4.912096 3.35 0 0 0
728 728 11 0 -10.9895 -3.684073 3.35 0 0 0
730 730 11 0 -9.5715 -3.684073 3.35 0 0 0
757 757 11 0.06941 -17.3705 -2.456048 3.35 0 0 0
758 758 12 -0.08649999999999999 -18.0795 -1.228024 3.35 0 0 0
759 759 11 0.01454 -15.9525 -2.456048 3.35 0 0 0
760 760 11 0.00245 -15.2435 -1.228024 3.35 0 0 0
761 761 11 0 -13.1165 -2.456048 3.35 0 0 0
762 762 11 9.000000000000001e-05 -13.8255 -1.228024 3.35 0 0 0
763 763 11 0 -11.6985 -2.456048 3.35 0 0 0
764 764 11 0 -10.9895 -1.228024 3.35 0 0 0
766 766 11 0 -9.5715 -1.228024 3.35 0 0 0
1225 1225 11 0.06941 -18.0795 -8.596169 6.7 0 0 0
1226 1226 12 -0.08649999999999999 -18.7885 -7.368144 6.7 0 0 0
1227 1227 11 0.01454 -16.6615 -8.596169 6.7 0 0 0
1228 1228 11 0.00245 -15.9525 -7.368144 6.7 0 0 0
1229 1229 11 0 -13.8255 -8.596169 6.7 0 0 0
1230 1230 11 9.000000000000001e-05 -14.5345 -7.368144 6.7 0 0 0
1231 1231 11 0 -12.4075 -8.596169 6.7 0 0 0
1232 1232 11 0 -11.6985 -7.368144 6.7 0 0 0
1233 1233 11 0 -9.5715 -8.596169 6.7 0 0 0
1234 1234 11 0 -10.2805 -7.368144 6.7 0 0 0
1261 1261 11 0.06941 -18.0795 -6.140121 6.7 0 0 0
1262 1262 12 -0.08649999999999999 -18.7885 -4.912096 6.7 0 0 0
1263 1263 11 0.01454 -16.6615 -6.140121 6.7 0 0 0
1264 1264 11 0.00245 -15.9525 -4.912096 6.7 0 0 0
1265 1265 11 0 -13.8255 -6.140121 6.7 0 0 0
1266 1266 11 9.000000000000001e-05 -14.5345 -4.912096 6.7 0 0 0
1267 1267 11 0 -12.4075 -6.140121 6.7 0 0 0
1268 1268 11 0 -11.6985 -4.912096 6.7 0 0 0
1269 1269 11 0 -9.5715 -6.140121 6.7 0 0 0
1270 1270 11 0 -10.2805 -4.912096 6.7 0 0 0
1297 1297 11 0.06941 -18.0795 -3.684073 6.7 0 0 0
1298 1298 12 -0.08649999999999999 -18.7885 -2.456048 6.7 0 0 0
1299 1299 11 0.01454 -16.6615 -3.684073 6.7 0 0 0
1300 1300 11 0.00245 -15.9525 -2.456048 6.7 0 0 0
1301 1301 11 0 -13.8255 -3.684073 6.7 0 0 0
1302 1302 11 9.000000000000001e-05 -14.5345 -2.456048 6.7 0 0 0
1303 1303 11 0 -12.4075 -3.684073 6.7 0 0 0
1304 1304 11 0 -11.6985 -2.456048 6.7 0 0 0
1305 1305 11 0 -9.5715 -3.684073 6.7 0 0 0
1306 1306 11 0 -10.2805 -2.456048 6.7 0 0 0
1333 1333 11 0.06941 -18.0795 -1.228024 6.7 0 0 0
1335 1335 11 0.01454 -16.6615 -1.228024 6.7 0 0 0
1337 1337 11 0 -13.8255 -1.228024 6.7 0 0 0
1339 1339 11 0 -12.4075 -1.228024 6.7 0 0 0
1341 1341 11 0 -9.5715 -1.228024 6.7 0 0 0
155 155 11 0 -8.1535 -8.596169 0 0 0 0
156 156 11 0 -7.4445 -7.368144 0 0 0 0
157 157 11 0 -5.3175 -8.596169 0 0 0 0
158 158 11 0 -6.0265 -7.368144 0 0 0 0
159 159 11 0 -3.8995 -8.596169 0 0 0 0
160 160 11 0 -3.1905 -7.368144 0 0 0 0
161 161 11 0 -1.063499 -8.596169 0 0 0 0
162 162 11 0 -1.772501 -7.368144 0 0 0 0
191 191 11 0 -8.1535 -6.140121 0 0 0 0
192 192 11 0 -7.4445 -4.912096 0 0 0 0
193 193 11 0 -5.3175 -6.140121 0 0 0 0
194 194 11 0 -6.0265 -4.912096 0 0 0 0
195 195 11 0 -3.8995 -6.140121 0 0 0 0
196 196 11 0 -3.1905 -4.912096 0 0 0 0
197 197 11 0 -1.063499 -6.140121 0 0 0 0
198 198 11 0 -1.772501 -4.912096 0 0 0 0
227 227 11 0 -8.1535 -3.684073 0 0 0 0
228 228 11 0 -7.4445 -2.456048 0 0 0 0
229 229 11 0 -5.3175 -3.684073 0 0 0 0
230 230 11 0 -6.0265 -2.456048 0 0 0 0
231 231 11 0 -3.8995 -3.684073 0 0 0 0
232 232 11 0 -3.1905 -2.456048 0 0 0 0
233 233 11 0 -1.063499 -3.684073 0 0 0 0
234 234 11 0 -1.772501 -2.456048 0 0 0 0
263 263 11 0 -8.1535 -1.228024 0 0 0 0
265 265 11 0 -5.3175 -1.228024 0 0 0 0
267 267 11 0 -3.8995 -1.228024 0 0 0 0
269 269 11 0 -1.063499 -1.228024 0 0 0 0
660 660 11 0 -6.7355 -8.596169 3.35 0 0 0
662 662 11 0 -5.3175 -8.596169 3.35 0 0 0
664 664 11 0 -2.4815 -8.596169 3.35 0 0 0
666 666 11 0 -1.063499 -8.596169 3.35 0 0 0
693 693 11 0 -8.8625 -7.368144 3.35 0 0 0
695 695 11 0 -7.4445 -7.368144 3.35 0 0 0
696 696 11 0 -6.7355 -6.140121 3.35 0 0 0
697 697 11 0 -4.6085 -7.368144 3.35 0 0 0
698 698 11 0 -5.3175 -6.140121 3.35 0 0 0
699 699 11 0 -3.1905 -7.368144 3.35 0 0 0
700 700 11 0 -2.4815 -6.140121 3.35 0 0 0
701 701 11 0 -0.3545 -7.368144 3.35 0 0 0
702 702 11 0 -1.063499 -6.140121 3.35 0 0 0
729 729 11 0 -8.8625 -4.912096 3.35 0 0 0
731 731 11 0 -7.4445 -4.912096 3.35 0 0 0
732 732 11 0 -6.7355 -3.684073 3.35 0 0 0
733 733 11 0 -4.6085 -4.912096 3.35 0 0 0
734 734 11 0 -5.3175 -3.684073 3.35 0 0 0
735 735 11 0 -3.1905 -4.912096 3.35 0 0 0
736 736 11 0 -2.4815 -3.684073 3.35 0 0 0
737 737 11 0 -0.3545 -4.912096 3.35 0 0 0
738 738 11 0 -1.063499 -3.684073 3.35 0 0 0
765 765 11 0 -8.8625 -2.456048 3.35 0 0 0
767 767 11 0 -7.4445 -2.456048 3.35 0 0 0
768 768 11 0 -6.7355 -1.228024 3.35 0 0 0
769 769 11 0 -4.6085 -2.456048 3.35 0 0 0
770 770 11 0 -5.3175 -1.228024 3.35 0 0 0
771 771 11 0 -3.1905 -2.456048 3.35 0 0 0
772 772 11 0 -2.4815 -1.228024 3.35 0 0 0
773 773 11 0 -0.3545 -2.456048 3.35 0 0 0
774 774 11 0 -1.063499 -1.228024 3.35 0 0 0
1235 1235 11 0 -8.1535 -8.596169 6.7 0 0 0
1236 1236 11 0 -7.4445 -7.368144 6.7 0 0 0